8
Lattice="5.44 0.0 0.0 0.0 5.44 0.0 0.0 0.0 5.44" Properties=species:S:1:pos:R:3 Time=0.0
Si        0.00000000      0.00000000      0.00000000
Si        1.36000000      1.36000000      1.36000000
Si        2.72000000      2.72000000      0.00000000
Si        4.08000000      4.08000000      1.36000000
Si        2.72000000      0.00000000      2.72000000
Si        4.08000000      1.36000000      4.08000000
Si        0.00000000      2.72000000      2.72000000
Si        1.36000000      4.08000000      4.08000000
8
Lattice="5.24 .10 0.0 0.0 5.44 0.0 0.0 0.0 5.44" Properties=species:S:1:pos:R:3 Time=0.1
Si        0.00000000      0.00000000      0.00000000
Si        1.86000000      1.36000000      1.36000000
Si        2.72000000      2.72000000      0.00000000
Si        4.08000000      4.08000000      1.36000000
Si        2.72000000      0.00000000      2.72000000
Si        4.08000000      1.36000000      4.08000000
Si        0.00000000      2.72000000      2.72000000
Si        1.36000000      4.08000000      4.08000000
8
Lattice="5.44 0.0 0.0 0.0 5.44 0.0 0.0 0.0 5.44" Properties=species:S:1:pos:R:3 Time=0.2
Si        0.00000000      0.00000000      0.00000000
Si        2.36000000      1.36000000      1.36000000
Si        2.72000000      2.72000000      0.00000000
Si        4.08000000      4.08000000      1.36000000
Si        2.72000000      0.00000000      2.72000000
Si        4.08000000      1.36000000      4.08000000
Si        0.00000000      2.72000000      2.72000000
Si        1.36000000      4.08000000      4.08000000
